<?xml version="1.0"?>
<VTKFile type="UnstructuredGrid" version="0.1" byte_order="LittleEndian" header_type="UInt64">
  <UnstructuredGrid>
   <Piece NumberOfPoints="144" NumberOfCells="112">
      <PointData>
        <DataArray type="Int64" Name="FEM_NODE_ID" format="ascii">
           1 2 3 4 5 6 7 8 9 10 11 12 13 14 15 16 17 18 19 20 21 22 23 24 25 26 27 28 29 30 31 32 33 34 35 36 37 38 39 40 41 42 43 44 45 46 47 48 49 50 51 52 53 54 55 56 57 58 59 60 61 62 63 64 65 66 67 68 69 70 71 72 73 74 75 76 77 78 79 80 81 82 83 84 85 86 87 88 89 90 91 92 93 94 95 96 97 98 99 100 101 102 103 104 105 106 107 108 109 110 111 112 113 114 115 116 117 118 119 120 121 122 123 124 125 126 127 128 129 130 131 132 133 134 135 136 137 138 139 140 141 142 143 144
        </DataArray>
      </PointData>
      <CellData>
        <DataArray type="Int64" Name="FEM_ELEMENT_ID" format="ascii">
           51 52 53 111 112 1 2 3 4 5 6 7 8 9 10 11 12 13 14 15 16 17 18 19 20 21 22 23 24 25 26 27 28 29 30 31 32 33 34 35 36 37 38 39 40 41 42 43 44 45 46 47 48 49 50 54 55 56 57 58 59 60 61 62 63 64 65 66 67 68 69 70 71 72 73 74 75 76 77 78 79 80 81 82 83 84 85 86 87 88 89 90 91 92 93 94 95 96 97 98 99 100 101 102 103 104 105 106 107 108 109 110
        </DataArray>
      </CellData>
      <Points>
        <DataArray type="Float64" Name="Points" NumberOfComponents="3" format="ascii">
           20.0 0.0 0.0 20.0 24.0 0.0 80.0 0.0 0.0 80.0 24.0 0.0 116.0 0.0 4.0 116.0 24.0 4.0 56.0 0.0 4.0 56.0 24.0 4.0 116.0 19.2 4.0 116.0 14.4 4.0 116.0 9.6 4.0 116.0 4.8 4.0 111.0 0.0 4.0 106.0 0.0 4.0 101.0 0.0 4.0 96.0 0.0 4.0 91.0 0.0 4.0 86.0 0.0 4.0 81.0 0.0 4.0 76.0 0.0 4.0 71.0 0.0 4.0 66.0 0.0 4.0 61.0 0.0 4.0 56.0 6.0 4.0 56.0 12.0 4.0 56.0 18.0 4.0 60.61538 24.0 4.0 65.23077 24.0 4.0 69.84615 24.0 4.0 74.46154 24.0 4.0 79.07692 24.0 4.0 83.69231 24.0 4.0 88.30769 24.0 4.0 92.92308 24.0 4.0 97.53846 24.0 4.0 102.1538 24.0 4.0 106.7692 24.0 4.0 111.3846 24.0 4.0 85.83954 4.677503 4.0 85.29377 9.358894 4.0 84.14077 14.08601 4.0 83.71713 19.06859 4.0 101.0372 4.800192 4.0 101.1841 9.600144 4.0 101.5238 14.4001 4.0 101.8579 19.20005 4.0 106.1999 9.600144 4.0 111.1139 9.600141 4.0 106.0857 4.800192 4.0 111.0515 4.80019 4.0 106.3664 14.4001 4.0 111.1952 14.4001 4.0 106.5633 19.20005 4.0 111.2881 19.20005 4.0 90.60558 9.880786 4.0 96.06521 9.600144 4.0 90.84933 4.87967 4.0 95.94956 4.800192 4.0 92.67959 19.28271 4.0 92.44343 14.58564 4.0 88.18996 19.2757 4.0 88.301 14.53697 4.0 97.20865 19.20005 4.0 96.77073 14.4001 4.0 70.77826 6.035744 4.0 70.39056 12.03295 4.0 70.07006 18.04223 4.0 75.02954 12.42147 4.0 79.60341 13.4884 4.0 75.8151 6.268845 4.0 80.39809 8.884187 4.0 80.86136 4.406027 4.0 74.66289 18.2881 4.0 79.22491 18.71942 4.0 60.80634 11.95826 4.0 65.61073 11.96209 4.0 60.90476 5.967295 4.0 65.82332 5.972217 4.0 60.70884 17.96684 4.0 65.4053 17.97279 4.0 20.0 18.0 0.0 20.0 12.0 0.0 20.0 6.0 0.0 26.0 0.0 0.0 32.0 0.0 0.0 38.0 0.0 0.0 44.0 0.0 0.0 50.0 0.0 0.0 56.0 0.0 0.0 62.0 0.0 0.0 68.0 0.0 0.0 74.0 0.0 0.0 80.0 4.0 0.0 80.0 8.0 0.0 80.0 12.0 0.0 80.0 16.0 0.0 80.0 20.0 0.0 74.54545 24.0 0.0 69.09091 24.0 0.0 63.63636 24.0 0.0 58.18182 24.0 0.0 52.72727 24.0 0.0 47.27273 24.0 0.0 41.81818 24.0 0.0 36.36364 24.0 0.0 30.90909 24.0 0.0 25.45455 24.0 0.0 49.82421 4.800192 0.0 49.33938 9.458613 0.0 48.11312 14.21526 0.0 47.50876 19.11311 0.0 31.97494 6.178613 0.0 31.27471 12.32516 0.0 31.04455 18.17188 0.0 25.68703 11.97806 0.0 25.92604 5.980148 0.0 25.53905 17.99021 0.0 42.59749 14.00154 0.0 36.87729 13.46616 0.0 43.34492 9.22126 0.0 43.79609 4.59672 0.0 37.90699 4.433966 0.0 37.55833 8.833297 0.0 42.08415 18.91848 0.0 36.55204 18.61072 0.0 61.94588 4.75219 0.0 62.21317 9.438184 0.0 63.22502 14.1904 0.0 63.67887 19.0949 0.0 55.77786 9.885547 0.0 55.88845 4.885909 0.0 58.13971 14.54179 0.0 53.20307 14.54339 0.0 58.23661 19.25583 0.0 52.89951 19.2566 0.0 74.2078 12.65015 0.0 68.61579 13.73228 0.0 74.06959 8.490517 0.0 73.976 4.253588 0.0 68.20224 9.061239 0.0 67.99463 4.522006 0.0 74.66526 20.22305 0.0 74.59425 16.47814 0.0 69.25831 18.77018 0.0
        </DataArray>
      </Points>
      <Cells>
        <DataArray type="Int64" Name="connectivity" format="ascii">
           121 122 111 131 132 129 142 141 143 61 59 54 70 71 69 84 111 115 83 83 115 82 0 111 112 114 115 115 114 81 82 112 113 116 114 114 116 80 81 113 105 106 116 116 106 1 80 117 119 108 109 119 120 107 108 120 86 87 107 111 122 118 112 120 119 122 121 119 117 118 122 111 84 85 121 121 85 86 120 103 123 110 102 123 117 109 110 104 124 123 103 124 118 117 123 105 113 124 104 113 112 118 124 129 130 125 126 130 88 89 125 108 107 130 129 107 87 88 130 126 127 131 129 129 132 109 108 100 133 128 99 133 131 127 128 101 134 133 100 134 132 131 133 102 110 134 101 110 109 132 134 135 137 93 94 137 138 92 93 138 91 2 92 127 126 139 136 136 139 137 135 90 140 125 89 140 139 126 125 91 138 140 90 138 137 139 140 97 141 96 3 141 142 95 96 142 135 94 95 98 143 141 97 135 142 143 136 99 128 143 98 128 127 136 143 46 48 42 43 48 13 14 42 47 49 48 46 49 12 13 48 10 11 49 47 11 4 12 49 43 44 50 46 46 50 51 47 47 51 9 10 36 52 45 35 52 50 44 45 5 8 53 37 37 53 52 36 8 9 51 53 53 51 50 52 54 56 38 39 56 16 17 38 55 57 56 54 57 15 16 56 43 42 57 55 42 14 15 57 33 58 60 32 32 60 41 31 58 59 61 60 60 61 40 41 40 61 54 39 35 45 62 34 34 62 58 33 55 63 44 43 63 62 45 44 54 59 63 55 59 58 62 63 67 69 64 65 69 19 20 64 40 39 70 68 68 70 69 67 18 71 38 17 71 70 39 38 69 71 18 19 29 72 66 28 72 67 65 66 31 41 73 30 30 73 72 29 41 40 68 73 73 68 67 72 74 76 23 24 76 22 6 23 65 64 77 75 75 77 76 74 64 20 21 77 77 21 22 76 26 78 25 7 78 74 24 25 28 66 79 27 27 79 78 26 66 65 75 79 79 75 74 78
        </DataArray>
        <DataArray type="Int64" Name="offsets" format="ascii">
           3 6 9 12 15 19 23 27 31 35 39 43 47 51 55 59 63 67 71 75 79 83 87 91 95 99 103 107 111 115 119 123 127 131 135 139 143 147 151 155 159 163 167 171 175 179 183 187 191 195 199 203 207 211 215 219 223 227 231 235 239 243 247 251 255 259 263 267 271 275 279 283 287 291 295 299 303 307 311 315 319 323 327 331 335 339 343 347 351 355 359 363 367 371 375 379 383 387 391 395 399 403 407 411 415 419 423 427 431 435 439 443
        </DataArray>
        <DataArray type="UInt64" Name="types" format="ascii">
           5 5 5 5 5 9 9 9 9 9 9 9 9 9 9 9 9 9 9 9 9 9 9 9 9 9 9 9 9 9 9 9 9 9 9 9 9 9 9 9 9 9 9 9 9 9 9 9 9 9 9 9 9 9 9 9 9 9 9 9 9 9 9 9 9 9 9 9 9 9 9 9 9 9 9 9 9 9 9 9 9 9 9 9 9 9 9 9 9 9 9 9 9 9 9 9 9 9 9 9 9 9 9 9 9 9 9 9 9 9 9 9
        </DataArray>
      </Cells>
    </Piece>
  </UnstructuredGrid>
</VTKFile>
