<?xml version="1.0"?>
<VTKFile type="UnstructuredGrid" version="0.1" byte_order="LittleEndian" header_type="UInt32" compressor="vtkZLibDataCompressor">
  <UnstructuredGrid>
    <Piece NumberOfPoints="1666" NumberOfCells="982">
      <PointData>
      </PointData>
      <CellData>
        <DataArray type="Int32" Name="FEM_ELEMENT_ID" format="ascii" RangeMin="1" RangeMax="982">
          1 2 3 4 5 6
          7 8 9 10 11 12
          13 14 15 16 17 18
          19 20 21 22 23 24
          25 26 27 28 29 30
          31 32 33 34 35 36
          37 38 39 40 41 42
          43 44 45 46 47 48
          49 50 51 52 53 54
          55 56 57 58 59 60
          61 62 63 64 65 66
          67 68 69 70 71 72
          73 74 75 76 77 78
          79 80 81 82 83 84
          85 86 87 88 89 90
          91 92 93 94 95 96
          97 98 99 100 101 102
          103 104 105 106 107 108
          109 110 111 112 113 114
          115 116 117 118 119 120
          121 122 123 124 125 126
          127 128 129 130 131 132
          133 134 135 136 137 138
          139 140 141 142 143 144
          145 146 147 148 149 150
          151 152 153 154 155 156
          157 158 159 160 161 162
          163 164 165 166 167 168
          169 170 171 172 173 174
          175 176 177 178 179 180
          181 182 183 184 185 186
          187 188 189 190 191 192
          193 194 195 196 197 198
          199 200 201 202 203 204
          205 206 207 208 209 210
          211 212 213 214 215 216
          217 218 219 220 221 222
          223 224 225 226 227 228
          229 230 231 232 233 234
          235 236 237 238 239 240
          241 242 243 244 245 246
          247 248 249 250 251 252
          253 254 255 256 257 258
          259 260 261 262 263 264
          265 266 267 268 269 270
          271 272 273 274 275 276
          277 278 279 280 281 282
          283 284 285 286 287 288
          289 290 291 292 293 294
          295 296 297 298 299 300
          301 302 303 304 305 306
          307 308 309 310 311 312
          313 314 315 316 317 318
          319 320 321 322 323 324
          325 326 327 328 329 330
          331 332 333 334 335 336
          337 338 339 340 341 342
          343 344 345 346 347 348
          349 350 351 352 353 354
          355 356 357 358 359 360
          361 362 363 364 365 366
          367 368 369 370 371 372
          373 374 375 376 377 378
          379 380 381 382 383 384
          385 386 387 388 389 390
          391 392 393 394 395 396
          397 398 399 400 401 402
          403 404 405 406 407 408
          409 410 411 412 413 414
          415 416 417 418 419 420
          421 422 423 424 425 426
          427 428 429 430 431 432
          433 434 435 436 437 438
          439 440 441 442 443 444
          445 446 447 448 449 450
          451 452 453 454 455 456
          457 458 459 460 461 462
          463 464 465 466 467 468
          469 470 471 472 473 474
          475 476 477 478 479 480
          481 482 483 484 485 486
          487 488 489 490 491 492
          493 494 495 496 497 498
          499 500 501 502 503 504
          505 506 507 508 509 510
          511 512 513 514 515 516
          517 518 519 520 521 522
          523 524 525 526 527 528
          529 530 531 532 533 534
          535 536 537 538 539 540
          541 542 543 544 545 546
          547 548 549 550 551 552
          553 554 555 556 557 558
          559 560 561 562 563 564
          565 566 567 568 569 570
          571 572 573 574 575 576
          577 578 579 580 581 582
          583 584 585 586 587 588
          589 590 591 592 593 594
          595 596 597 598 599 600
          601 602 603 604 605 606
          607 608 609 610 611 612
          613 614 615 616 617 618
          619 620 621 622 623 624
          625 626 627 628 629 630
          631 632 633 634 635 636
          637 638 639 640 641 642
          643 644 645 646 647 648
          649 650 651 652 653 654
          655 656 657 658 659 660
          661 662 663 664 665 666
          667 668 669 670 671 672
          673 674 675 676 677 678
          679 680 681 682 683 684
          685 686 687 688 689 690
          691 692 693 694 695 696
          697 698 699 700 701 702
          703 704 705 706 707 708
          709 710 711 712 713 714
          715 716 717 718 719 720
          721 722 723 724 725 726
          727 728 729 730 731 732
          733 734 735 736 737 738
          739 740 741 742 743 744
          745 746 747 748 749 750
          751 752 753 754 755 756
          757 758 759 760 761 762
          763 764 765 766 767 768
          769 770 771 772 773 774
          775 776 777 778 779 780
          781 782 783 784 785 786
          787 788 789 790 791 792
          793 794 795 796 797 798
          799 800 801 802 803 804
          805 806 807 808 809 810
          811 812 813 814 815 816
          817 818 819 820 821 822
          823 824 825 826 827 828
          829 830 831 832 833 834
          835 836 837 838 839 840
          841 842 843 844 845 846
          847 848 849 850 851 852
          853 854 855 856 857 858
          859 860 861 862 863 864
          865 866 867 868 869 870
          871 872 873 874 875 876
          877 878 879 880 881 882
          883 884 885 886 887 888
          889 890 891 892 893 894
          895 896 897 898 899 900
          901 902 903 904 905 906
          907 908 909 910 911 912
          913 914 915 916 917 918
          919 920 921 922 923 924
          925 926 927 928 929 930
          931 932 933 934 935 936
          937 938 939 940 941 942
          943 944 945 946 947 948
          949 950 951 952 953 954
          955 956 957 958 959 960
          961 962 963 964 965 966
          967 968 969 970 971 972
          973 974 975 976 977 978
          979 980 981 982
        </DataArray>
      </CellData>
      <Points>
        <DataArray type="Float32" Name="Points" NumberOfComponents="3" format="ascii" RangeMin="0" RangeMax="86.60254037844386">
          50 50 -50 50 50 0
          50 50 -40 50 50 -30
          50 50 -20 50 50 -10
          50 0 0 50 10 0
          50 20 0 50 30 0
          50 40 0 50 0 -50
          50 0 -40 50 0 -30
          50 0 -20 50 0 -10
          50 10 -50 50 20 -50
          50 30 -50 50 40 -50
          0 50 0 40 50 0
          30 50 0 20 50 0
          10 50 0 0 0 0
          0 10 0 0 20 0
          0 30 0 0 40 0
          40 0 0 30 0 0
          20 0 0 10 0 0
          0 50 -50 0 50 -10
          0 50 -20 0 50 -30
          0 50 -40 0 0 -50
          0 10 -50 0 20 -50
          0 30 -50 0 40 -50
          0 0 -10 0 0 -20
          0 0 -30 0 0 -40
          10 50 -50 20 50 -50
          30 50 -50 40 50 -50
          10 0 -50 20 0 -50
          30 0 -50 40 0 -50
          22.860521 0 -28.615898 22.397043 0 -9.266315
          41.354404 0 -16.680477 40.61529 0 -33.873608
          11.605278 0 -32.681072 15.056143 0 -22.86144
          12.886285 0 -8.567708 23.20146 0 -39.843975
          33.32752 0 -24.129744 31.77002 0 -12.857799
          7.1280904 0 -24.53922 43.035473 0 -24.917437
          34.56238 0 -41.70533 23.56647 0 -18.83528
          40.27778 0 -8.333333 43.01866 0 -43.1032
          8.657175 0 -16.912607 30.538874 0 -33.4112
          12.927519 0 -42.55727 16.512623 0 -15.28867
          22.91154 50 -28.621477 22.396648 50 -9.24987
          41.357727 50 -16.675764 11.609228 50 -32.698433
          40.6628 50 -33.88797 15.056028 50 -22.799574
          12.886285 50 -8.567708 23.24807 50 -39.866238
          33.474003 50 -24.204159 31.776884 50 -12.850691
          7.0666924 50 -24.479788 43.051968 50 -24.918379
          34.600677 50 -41.710938 23.597813 50 -18.830553
          40.27778 50 -8.333333 43.052696 50 -43.11978
          8.668206 50 -16.900936 30.959291 50 -33.64427
          12.9364805 50 -42.595516 16.539942 50 -15.284801
          25.43101 30.821287 -50 21.385672 9.542555 -50
          41.29342 16.556902 -50 38.15344 33.227325 -50
          12.26889 27.80565 -50 8.479497 37.29138 -50
          12.591935 7.2776966 -50 28.560957 40.925926 -50
          33.570312 23.107655 -50 22.593653 20.260345 -50
          31.513279 12.985887 -50 42.57898 24.62686 -50
          40.27778 8.333333 -50 17.476744 39.48046 -50
          37.34288 42.83065 -50 11.615162 16.731398 -50
          0 30.739044 -22.110838 0 9.576446 -21.075104
          0 16.936802 -41.003567 0 25.918371 -11.204463
          0 32.93707 -38.460766 0 38.21065 -12.562974
          0 7.2668505 -12.499096 0 40.860714 -24.836721
          0 24.785093 -32.400017 0 20.214775 -21.516785
          0 13.396133 -31.044127 0 25.006361 -42.34821
          0 41.949123 -34.030697 0 8.333333 -40.27778
          0 41.25 -41.875 0 34.265472 -30.31582
          0 16.580914 -11.390619 24.62303 30.861145 0
          28.631239 9.550893 0 8.723093 16.576496 0
          37.79028 27.74854 0 11.820631 33.23572 0
          41.535713 37.285713 0 37.412983 7.2791753 0
          21.476698 40.96372 0 16.454447 23.13359 0
          27.400309 20.171055 0 18.506681 13.000233 0
          7.3996344 24.58916 0 9.722222 8.333333 0
          32.5818 39.506676 0 12.673301 42.86523 0
          38.396175 16.731924 0 50 28.621477 -27.08846
          50 9.24987 -27.603352 50 16.675764 -8.642274
          50 32.698433 -38.39077 50 33.88797 -9.337199
          50 22.799574 -34.943974 50 8.567708 -37.113716
          50 39.866238 -26.75193 50 24.204159 -16.525997
          50 12.850691 -18.223116 50 24.479788 -42.933308
          50 24.918379 -6.948031 50 41.710938 -15.399323
          50 18.830553 -26.402187 50 8.333333 -9.722222
          50 43.11978 -6.9473047 50 16.900936 -41.331795
          50 33.64427 -19.040709 50 42.595516 -37.06352
          50 15.284801 -33.460056 6.6616445 43.86076 -43.51268
          22.379307 7.5170417 -8.211579 43.22512 43.11515 -43.330494
          35.459003 17.550148 -41.91078 18.793604 6.824266 -40.78076
          7.8208675 37.1458 -35.498455 8.868035 7.636739 -26.560574
          35.202496 43.74678 -6.1308627 42.966206 11.177327 -41.959244
          7.6425066 8.185028 -44.185757 10.520621 21.13965 -8.115215
          42.520744 14.48862 -25.060606 8.630768 11.614695 -7.339411
          42.147087 22.527401 -10.955467 43.324814 20.702425 -43.245872
          5.6904902 44.30951 -15 8.979494 39.84198 -8.606537
          25.995195 5.158071 -45.00632 41.65053 29.54561 -43.263725
          41.30565 6.7572117 -16.491861 34.26569 6.3899956 -41.488415
          7.4738135 29.621157 -41.370552 40.190517 41.720303 -22.486591
          43.75568 29.427917 -5.2959013 5.9321766 6.253096 -35.442257
          23.56738 36.290638 -41.532246 44.519577 43.7219 -7.3025856
          33.37238 7.485019 -8.548824 45.20056 4.971914 -5.357557
          7.903646 20.64772 -44.450592 25 44.209015 -44.209015
          7.96562 43.034206 -29.837046 17.281942 43.42213 -8.182162
          26.213392 39.142597 -8.970025 17.613873 41.81722 -28.724527
          6.626406 17.309816 -34.538208 31.153444 16.350952 -7.2456923
          29.43449 8.301077 -19.7016 34.685757 38.994633 -41.818794
          21.317984 26.936483 -40.564743 26.386412 41.403534 -34.769062
          41.547386 32.627922 -30.41963 28.544186 42.35921 -20.471395
          42.93423 35.684002 -12.6067705 34.051346 43.025692 -31.395027
          6.989156 28.99731 -7.7279754 7.7491927 36.80674 -18.99203
          43.469666 17.303041 -35.785736 7.4121823 14.81128 -18.085945
          11.855791 8.4440155 -14.290681 35.399624 8.982529 -31.40097
          43.899918 23.40464 -23.17166 17.785353 29.770771 -7.692812
          17.615421 6.460834 -30.549883 18.28898 16.742186 -42.20079
          26.824987 5.851282 -34.01393 7.1519628 26.272383 -17.339052
          29.038372 23.539688 -43.462795 20.736238 18.127693 -7.692034
          30.451546 25.804255 -8.367985 16.388004 42.443985 -39.412224
          17.625406 42.69229 -17.835953 7.886907 29.92987 -28.275558
          36.78232 41.93448 -13.808798 40.926834 12.695859 -7.2863145
          13.080462 11.814726 -36.011993 35.74972 17.47882 -14.397591
          40.962425 39.570595 -34.793625 11.511063 24.58053 -38.43409
          24.633083 32.177334 -30.59647 38.82435 30.814404 -19.185825
          35.237255 33.682972 -7.86873 39.698437 24.982567 -34.37899
          18.71892 9.536412 -19.993444 44.212288 7.1326327 -33.971157
          14.557475 32.88289 -13.765145 12.58854 16.60085 -25.791441
          27.84861 12.552516 -40.74241 16.781364 21.393497 -17.502892
          16.259975 32.812515 -35.135002 14.581739 33.994087 -43.175495
          18.85384 23.172924 -29.95309 26.159538 19.346573 -18.46541
          29.389732 18.938194 -32.64137 25.14728 32.56679 -18.723349
          33.126858 33.96975 -28.215147 32.96874 30.307775 -37.191017
          36.73342 22.234053 -24.067902 14.569431 34.022606 -24.154356
          23.36131 12.249383 -30.401638 34.59143 15.323415 -25.562368
          8.38571 43.734047 -21.874714 5.9111896 4.5205617 -6.7449684
          42.53754 45.16506 -29.572332 45.95943 4.777616 -45.55656
          11.769376 46.091576 -17.397255 50 50 -45
          50 45 -50 45 50 -50
          46.52635 50 -46.55989 46.61256 46.557575 -46.665245
          50 50 -5 50 45 0
          45 50 0 45.13889 50 -4.1666665
          50 46.55989 -3.4736524 47.25979 46.86095 -3.6512928
          50 50 -35 50 45 -45
          45.3314 50 -36.943985 46.52635 50 -41.55989
          50 46.297756 -38.53176 46.61256 46.557575 -41.665245
          50 50 -25 45.3314 50 -31.943985
          46.525986 50 -27.45919 50 44.933117 -28.375965
          50 46.297756 -33.53176 46.268772 47.58253 -29.786165
          50 50 -15 45.678864 50 -18.337881
          46.525986 50 -22.45919 50 44.933117 -23.375965
          50 45.85547 -17.699661 45.095257 45.860153 -21.243296
          45.678864 50 -13.337882 45.13889 50 -9.166667
          50 45.85547 -12.699662 50 46.55989 -8.473652
          47.25979 46.86095 -8.651293 50 5 0
          50 0 -5 45 0 0
          45.13889 0 -4.1666665 50 4.1666665 -4.861111
          47.60028 2.485957 -2.6787784 50 15 0
          45 5 0 43.70649 8.639587 0
          44.19809 13.365962 0 50 13.337882 -4.321137
          50 9.166667 -4.861111 47.60028 7.4859567 -2.6787784
          45.463417 11.34793 -3.6431572 50 25 0
          43.895138 23.87427 0 44.19809 18.365961 0
          50 18.337881 -4.321137 50 22.45919 -3.4740155
          46.073544 21.2637 -5.4777336 46.87784 24.713959 -2.6479506
          45.463417 16.347929 -3.6431572 50 35 0
          43.895138 28.87427 0 45.767857 33.642857 0
          50 31.943985 -4.6685996 50 27.45919 -3.4740155
          46.87784 29.713959 -2.6479506 45 45 0
          45.767857 38.642857 0 50 36.943985 -4.6685996
          50 41.55989 -3.4736524 47.25979 41.86095 -3.6512928
          50 0 -45 50 5 -50
          45 0 -50 46.50933 0 -46.5516
          45.13889 4.1666665 -50 47.979717 2.388808 -47.778282
          50 0 -35 50 5 -45
          45.307644 0 -36.936802 46.50933 0 -41.5516
          50 4.283854 -38.556858 47.106144 3.5663164 -36.985577
          47.979717 2.388808 -42.778282 50 0 -25
          45.307644 0 -31.936804 46.51774 0 -27.45872
          50 4.624935 -28.801676 50 4.283854 -33.556858
          47.106144 3.5663164 -31.985579 50 0 -15
          45.677204 0 -18.340239 46.51774 0 -22.45872
          50 4.624935 -23.801676 50 6.4253454 -19.111557
          50 4.1666665 -14.861111 45.652824 3.3786058 -18.24593
          45.677204 0 -13.340239 45.13889 0 -9.166667
          50 4.1666665 -9.861111 45.652824 3.3786058 -13.245931
          47.60028 2.485957 -7.6787786 50 15 -50
          45.64671 13.278451 -50 45.13889 9.166667 -50
          50 9.2838545 -43.556858 50 13.450468 -45.665897
          46.4831 10.588664 -45.97962 47.979717 7.388808 -47.778282
          50 25 -50 45.64671 18.278452 -50
          46.28949 22.31343 -50 50 22.239895 -46.466652
          50 18.450468 -45.665897 46.662407 20.351212 -46.622936
          50 35 -50 44.07672 31.613663 -50
          46.28949 27.31343 -50 50 31.349216 -44.195385
          50 27.239895 -46.466652 45.825264 29.772804 -46.631863
          45 45 -50 44.07672 36.613663 -50
          43.67144 41.415325 -50 50 36.349216 -44.195385
          50 41.297756 -43.53176 46.61256 41.557575 -46.665245
          45.825264 34.772804 -46.631863 5 50 0
          0 45 0 0 50 -5
          35 50 0 40.13889 50 -4.1666665
          40.767857 43.642857 0 36.2909 44.753338 0
          37.601246 46.87339 -3.0654314 42.25979 46.86095 -3.6512928
          25 50 0 26.198324 50 -4.624935
          30.888443 50 -6.4253454 35.13889 50 -4.1666665
          25.73835 45.48186 0 31.2909 44.753338 0
          32.601246 46.87339 -3.0654314 28.106695 44.5713 -4.4850125
          15 50 0 21.198324 50 -4.624935
          16.443142 50 -4.283854 20.73835 45.48186 0
          16.33665 46.432613 0 18.640972 46.711063 -4.091081
          5 45 0 5 50 -5
          11.443142 50 -4.283854 11.336651 46.432613 0
          9.489747 44.92099 -4.3032684 0 5 0
          5 0 0 0 0 -5
          4.861111 4.1666665 0 2.9555948 2.2602808 -3.3724842
          0 15 0 0 5 -5
          0 8.633426 -6.249548 0 13.290457 -5.6953096
          4.3615465 13.288248 0 4.861111 9.166667 0
          4.315384 10.807347 -3.6697054 2.9555948 7.2602806 -3.3724842
          0 25 0 0 22.959187 -5.6022315
          0 18.290457 -5.6953096 4.3615465 18.288248 0
          3.6998172 22.29458 0 5.2603106 20.569826 -4.0576077
          4.315384 15.807347 -3.6697054 3.494578 24.498655 -3.8639877
          0 35 0 0 27.959187 -5.6022315
          0 34.105324 -6.281487 5.9103155 31.61786 0
          3.6998172 27.29458 0 4.489747 34.92099 -4.3032684
          3.494578 29.498655 -3.8639877 0 45 -5
          0 39.105324 -6.281487 5.9103155 36.61786 0
          6.3366504 41.432613 0 4.489747 39.92099 -4.3032684
          35 0 0 40.13889 0 -4.1666665
          38.70649 3.6395876 0 42.60028 2.485957 -2.6787784
          25 0 0 26.19852 0 -4.6331577
          30.88501 0 -6.4288993 35.13889 0 -4.1666665
          29.31562 4.7754464 0 33.70649 3.6395876 0
          26.189653 3.7585208 -4.1057897 31.68619 3.7425096 -4.274412
          15 0 0 21.19852 0 -4.6331577
          16.443142 0 -4.283854 24.31562 4.7754464 0
          19.253342 6.5001163 0 14.861111 4.1666665 0
          21.189653 3.7585208 -4.1057897 5 0 -5
          11.443142 0 -4.283854 9.861111 4.1666665 0
          7.9555945 2.2602808 -3.3724842 0 50 -45
          0 45 -50 5 50 -50
          0 45.625 -45.9375 3.3308222 46.93038 -46.75634
          0 50 -15 6.4431424 50 -9.2838545
          4.334103 50 -13.450468 0 44.105324 -11.2814865
          2.8452451 47.154755 -12.5 4.489747 44.92099 -9.303268
          0 50 -25 3.5333462 50 -22.239895
          4.334103 50 -18.450468 0 44.105324 -16.281487
          0 45.43036 -22.418362 2.8452451 47.154755 -17.5
          4.192855 46.867023 -20.937357 0 50 -35
          5.804614 50 -31.349216 3.5333462 50 -27.239895
          0 45.43036 -27.418362 0 45.974564 -32.015347
          3.98281 46.5171 -29.918524 5 50 -45
          5.804614 50 -36.349216 6.4682403 50 -41.297756
          0 45.974564 -37.015347 0 45.625 -40.9375
          3.3308222 46.93038 -41.75634 3.98281 46.5171 -34.91852
          0 5 -50 0 0 -45
          5 0 -50 0 4.1666665 -45.13889
          3.8212533 4.092514 -47.09288 0 15 -50
          5 5 -50 6.2959676 8.638848 -50
          5.807581 13.365699 -50 0 13.468401 -45.50178
          0 9.166667 -45.13889 3.8212533 9.092514 -47.09288
          3.951823 15.32386 -47.225296 0 25 -50
          6.134445 23.902826 -50 5.807581 18.3657 -50
          0 18.468401 -45.50178 0 22.503181 -46.174103
          3.951823 20.32386 -47.225296 0 35 -50
          6.134445 28.902826 -50 4.2397485 33.64569 -50
          0 31.468534 -44.230385 0 27.503181 -46.174103
          3.7369068 29.81058 -45.685276 3.951823 25.32386 -47.225296
          5 45 -50 4.2397485 38.64569 -50
          0 36.468536 -44.230385 0 40.625 -45.9375
          3.3308222 41.93038 -46.75634 0 0 -15
          6.4431424 0 -9.2838545 4.3285875 0 -13.456304
          0 3.6334252 -11.249548 2.9555948 2.2602808 -8.372484
          0 0 -25 3.5640452 0 -22.269611
          4.3285875 0 -18.456303 0 4.788223 -20.537552
          0 3.6334252 -16.249548 0 0 -35
          5.802639 0 -31.340536 3.5640452 0 -27.269611
          0 4.788223 -25.537552 0 6.6980667 -30.522064
          0 4.1666665 -35.13889 4.4340177 3.8183694 -28.280287
          2.9660883 3.126548 -32.72113 5 0 -45
          5.802639 0 -36.340534 6.4637594 0 -41.278637
          0 4.1666665 -40.13889 3.8212533 4.092514 -42.09288
          2.9660883 3.126548 -37.72113 15 50 -50
          11.46824 50 -46.297756 9.239749 43.64569 -50
          13.738372 44.74023 -50 8.330822 46.93038 -46.75634
          25 50 -50 21.624035 50 -44.933117
          16.46824 50 -46.297756 24.280478 45.462963 -50
          18.73837 44.74023 -50 22.5 47.104507 -47.104507
          18.194002 46.221992 -44.706112 35 50 -50
          26.624035 50 -44.933117 32.30034 50 -45.85547
          29.280478 45.462963 -50 33.67144 46.415325 -50
          27.5 47.104507 -47.104507 37.30034 50 -45.85547
          41.52635 50 -46.55989 38.67144 46.415325 -50
          41.61256 46.557575 -46.665245 15 0 -50
          11.463759 0 -46.278637 11.295967 3.6388483 -50
          8.821253 4.092514 -47.09288 25 0 -50
          21.600729 0 -44.92199 16.46376 0 -46.278637
          20.692835 4.7712774 -50 16.295967 3.6388483 -50
          19.396801 3.412133 -45.39038 22.997597 2.5790355 -47.503162
          35 0 -50 26.600729 0 -44.92199
          32.28119 0 -45.852665 25.692835 4.7712774 -50
          30.75664 6.4929433 -50 35.13889 4.1666665 -50
          27.997597 2.5790355 -47.503162 32.132843 3.1949978 -45.744205
          37.28119 0 -45.852665 41.50933 0 -46.5516
          40.13889 4.1666665 -50 37.132843 3.1949978 -45.744205
          42.979717 2.388808 -47.778282 17.2329 0 -30.648485
          18.958332 0 -25.738668 23.03099 0 -34.22994
          28.09402 0 -26.37282 23.213495 0 -23.72559
          26.699697 0 -31.013552 26.147505 4.1505384 -24.158749
          20.23797 3.230417 -29.58289 24.842754 2.925641 -31.314915
          20.78972 4.768206 -24.304672 23.110916 6.1246915 -29.508768
          17.641665 0 -8.917011 27.08353 0 -11.062057
          22.981756 0 -14.050797 19.454832 0 -12.277493
          22.388174 3.7585208 -8.738947 37.34096 0 -20.40511
          36.562214 0 -14.769138 42.19494 0 -20.798958
          40.816093 0 -12.506906 41.33003 3.3786058 -16.58617
          36.971405 0 -29.001675 41.825382 0 -29.395521
          37.588837 0 -37.78947 41.816975 0 -38.488403
          35.57708 0 -33.642406 37.44049 3.1949978 -37.68101
          38.007458 4.4912643 -32.637287 42.413788 3.5663164 -33.922382
          13.33071 0 -27.771255 17.403368 0 -36.262524
          9.366685 0 -28.610147 12.266398 0 -37.61917
          15.199441 3.412133 -36.730915 10.236657 3.8183694 -29.620823
          8.768727 3.126548 -34.061665 14.61035 3.230417 -31.615477
          12.342871 5.907363 -34.346535 11.092116 0 -23.70033
          19.311306 0 -20.84836 11.856659 0 -19.887024
          15.784383 0 -19.075054 11.962089 3.8183694 -24.711006
          13.455967 4.2220078 -18.57606 16.335781 3.230417 -26.705662
          16.887531 4.768206 -21.427443 10.77173 0 -12.740157
          14.699453 0 -11.928189 11.304254 4.1666665 -4.283854
          17.632795 3.7585208 -8.389644 10.758526 5.8073473 -7.9535594
          12.371038 4.2220078 -11.429194 9.398737 2.2602808 -7.656338
          28.88192 0 -40.774654 26.870167 0 -36.62759
          18.06449 0 -41.200623 20.997532 3.412133 -40.31237
          24.598328 2.5790355 -42.425148 28.733574 3.1949978 -40.666195
          20.40844 3.230417 -35.19693 25.013224 2.925641 -36.928955
          32.54877 0 -18.49377 38.181496 0 -24.52359
          28.446995 0 -21.482512 31.933197 0 -28.770473
          37.316586 3.3786058 -20.310802 31.381004 4.1505384 -21.915672
          34.36357 4.4912643 -27.765356 30.076254 2.925641 -29.071836
          27.668243 0 -15.846539 36.0239 0 -10.595566
          27.074663 3.7585208 -10.534689 36.537834 3.3786058 -14.6748295
          32.571198 3.7425096 -10.703312 30.602255 4.1505384 -16.2797
          7.892633 0 -20.725914 3.5640452 4.788223 -22.807163
          7.998063 3.8183694 -25.549896 46.51774 4.624935 -26.260395
          42.778107 7.24431 -24.989021 42.17056 3.3786058 -20.704649
          39.21755 4.4912643 -28.159203 43.62388 3.5663164 -29.444296
          38.790524 0 -42.404266 32.55063 0 -37.558266
          30.278788 2.5790355 -43.355827 34.414036 3.1949978 -41.59687
          20.039545 0 -17.061975 22.972889 3.7585208 -13.52343
          26.500479 4.1505384 -19.26844 21.142694 4.768206 -19.414362
          38.84538 3.6395876 -4.1666665 40.791714 3.3786058 -12.412597
          36.825077 3.7425096 -8.441079 42.73917 2.485957 -6.845445
          40.602306 6.3479295 -7.809824 41.64822 4.1666665 -46.5516
          46.50933 4.283854 -40.108456 42.992435 5.5886636 -42.531223
          38.642174 3.1949978 -42.295807 43.615475 3.5663164 -38.537178
          44.489048 2.388808 -44.32988 12.584899 0 -16.100637
          4.3285875 4.788223 -18.993856 4.3285875 3.6334252 -14.705852
          8.762606 3.8183694 -21.73659 10.256483 4.2220078 -15.601644
          7.2841825 2.2602808 -11.828788 32.40228 3.1949978 -37.449806
          32.96925 4.4912643 -32.406086 28.68193 2.925641 -33.712566
          12.7597275 3.6388483 -46.278637 15.860561 3.412133 -41.669018
          10.285013 4.092514 -43.371513 9.429848 3.126548 -38.999763
          13.003991 5.907363 -39.284634 19.445965 3.7585208 -11.750125
          14.184207 4.2220078 -14.789675 17.615772 4.768206 -17.641058
          17.260384 50 -30.659954 18.983784 50 -25.710526
          23.079803 50 -34.243855 28.192772 50 -26.412817
          23.254675 50 -23.726015 26.935415 50 -31.132874
          20.262705 45.90861 -28.673002 24.648975 45.701767 -31.695269
          25.727861 46.179604 -24.546436 28.481441 46.512844 -30.008251
          20.268473 46.346146 -23.228714 17.641466 50 -8.90879
          27.086767 50 -11.050281 22.99723 50 -14.040212
          19.468296 50 -12.267335 21.936672 45.48186 -4.624935
          28.799572 46.87339 -7.6903663 19.839294 46.711063 -8.716017
          24.30502 44.5713 -9.109948 25.470417 46.179604 -14.860633
          20.011026 46.346146 -13.542912 37.415863 50 -20.43996
          36.567307 50 -14.763227 42.20485 50 -20.797071
          40.817753 50 -12.504548 45.678864 45.85547 -16.037544
          40.77412 45.860153 -19.581177 42.938652 46.86095 -11.989175
          39.070023 45.96724 -15.242281 13.332628 50 -27.749002
          17.42865 50 -36.282333 9.33796 50 -28.589111
          12.272855 50 -37.646973 9.135436 46.93038 -38.105556
          9.787424 46.5171 -31.26774 14.61155 45.90861 -30.71148
          13.998616 46.221992 -36.05533 37.0684 50 -29.046064
          41.857384 50 -29.403175 37.631737 50 -37.799454
          41.857746 50 -38.503876 35.811047 50 -33.76612
          45.3314 46.297756 -35.475746 41.94396 46.557575 -38.609234
          37.35707 46.512844 -32.6415 40.812614 44.785297 -34.340797
          41.60017 47.58253 -31.730152 11.06136 50 -23.63968
          19.32692 50 -20.815063 11.862117 50 -19.850254
          15.797985 50 -19.042187 11.510824 46.5171 -26.31831
          16.33495 45.90861 -25.76205 16.340717 46.346146 -20.317762
          11.720869 46.867023 -22.337143 13.412702 48.045788 -20.098413
          10.7772455 50 -12.734322 14.713114 50 -11.926254
          12.779793 46.432613 -4.283854 9.288387 47.154755 -11.7838545
          10.932889 44.92099 -8.587123 15.084114 46.711063 -8.374935
          12.32783 48.045788 -12.982482 28.924374 50 -40.788586
          27.10368 50 -36.755253 18.092276 50 -41.230877
          24.124035 47.104507 -42.037624 20.430971 45.90861 -34.29538
          24.817242 45.701767 -37.31765 19.818037 46.221992 -39.63923
          32.625443 50 -18.527424 38.262985 50 -24.561268
          28.535908 50 -21.517355 32.21665 50 -28.924215
          36.83226 45.860153 -23.345375 31.009094 46.179604 -22.337776
          33.762672 46.512844 -27.799593 35.128162 45.96724 -19.006477
          38.00577 47.58253 -26.888245 27.68735 50 -15.840622
          36.027332 50 -10.592011 33.48969 46.87339 -9.490777
          28.995138 44.5713 -10.910357 30.160534 46.179604 -16.661043
          34.279602 45.96724 -13.329744 7.8674493 50 -20.690361
          3.5333462 45.43036 -24.658255 7.516156 46.5171 -27.158417
          7.726201 46.867023 -23.17725 9.418035 48.045788 -20.938522
          46.525986 44.933117 -25.835155 41.621243 45.860153 -23.702486
          42.794754 47.58253 -27.245356 38.826687 50 -42.41536
          32.779984 50 -37.677605 31.580816 45.462963 -45.85547
          35.97178 46.415325 -45.85547 38.9129 46.557575 -42.520714
          29.800339 47.104507 -42.959976 34.64322 44.49732 -41.764866
          30.493544 45.701767 -38.24 34.32601 46.512844 -36.552982
          37.78155 44.785297 -38.25228 20.068878 50 -17.057676
          26.071 46.179604 -19.650974 20.611609 46.346146 -18.333252
          37.740135 46.87339 -7.2320976 42.398678 46.86095 -7.8179593
          38.53005 45.96724 -11.071066 43.13891 46.557575 -43.225136
          12.6040745 50 -16.092867 7.179348 47.154755 -15.950468
          8.5269575 46.867023 -19.387825 10.218791 48.045788 -17.149096
          28.672852 45.701767 -34.20667 32.505318 46.512844 -32.51965
          15.206612 44.74023 -46.297756 9.799063 46.93038 -43.054096
          14.662242 46.221992 -41.00387 16.910942 46.711063 -11.733481
          17.082674 46.346146 -16.560377 14.154659 48.045788 -16.341028
          31.792225 32.024303 -50 18.84995 29.313469 -50
          26.995983 35.873608 -50 29.500662 26.96447 -50
          24.012331 25.540815 -50 21.453876 35.150875 -50