<?xml version="1.0"?>
<VTKFile type="UnstructuredGrid" version="0.1" byte_order="LittleEndian" header_type="UInt32" compressor="vtkZLibDataCompressor">
  <UnstructuredGrid>
    <Piece NumberOfPoints="59" NumberOfCells="43">
      <PointData>
      </PointData>
      <CellData>
        <DataArray type="Float32" Name="SHELL_THICKNESS" format="ascii" RangeMin="0.10000000149011612" RangeMax="0.10000000149011612">
          0.10000000149011612 0.10000000149011612 0.10000000149011612 0.10000000149011612 0.10000000149011612 0.10000000149011612
          0.10000000149011612 0.10000000149011612 0.10000000149011612 0.10000000149011612 0.10000000149011612 0.10000000149011612
          0.10000000149011612 0.10000000149011612 0.10000000149011612 0.10000000149011612 0.10000000149011612 0.10000000149011612
          0.10000000149011612 0.10000000149011612 0.10000000149011612 0.10000000149011612 0.10000000149011612 0.10000000149011612
          0.10000000149011612 0.10000000149011612 0.10000000149011612 0.10000000149011612 0.10000000149011612 0.10000000149011612
          0.10000000149011612 0.10000000149011612 0.10000000149011612 0.10000000149011612 0.10000000149011612 0.10000000149011612
          0.10000000149011612 0.10000000149011612 0.10000000149011612 0.10000000149011612 0.10000000149011612 0.10000000149011612
          0.10000000149011612
        </DataArray>
      </CellData>
      <Points>
        <DataArray type="Float32" Name="Points" NumberOfComponents="3" format="ascii" RangeMin="0.9999999772208115" RangeMax="7.0710678118654755">
          1 0 0 1.100000023841858 0 0
          1.25 0 0 1.5 0 0
          2.0999999046325684 0 0 3.5 0 0
          5 0 0 0.9848077297210693 0.1736481785774231 0
          1.083288550376892 0.19101299345493317 0 1.2310097217559814 0.21706022322177887 0
          1.477211594581604 0.26047226786613464 0 2.068096399307251 0.36466118693351746 0
          3.4468271732330322 0.6077685952186584 0 0.9396926164627075 0.3420201539993286 0
          1.0336618423461914 0.376222163438797 0 1.174615740776062 0.42752519249916077 0
          1.409538984298706 0.5130302309989929 0 1.973354458808899 0.7182422876358032 0
          3.288924217224121 1.1970704793930054 0 0.8191520571708679 0.5735764503479004 0
          0.9010672569274902 0.6309340596199036 0 1.023940086364746 0.7169705629348755 0
          1.2287280559539795 0.8603646755218506 0 1.7202192544937134 1.2045105695724487 0
          2.867032051086426 2.0075175762176514 0 0.5735764503479004 0.8191520571708679 0
          0.6309340596199036 0.9010672569274902 0 0.7169705629348755 1.023940086364746 0
          0.8603646755218506 1.2287280559539795 0 1.2045105695724487 1.7202192544937134 0
          2.0075175762176514 2.867032051086426 0 0.3420201539993286 0.9396926164627075 0
          0.376222163438797 1.0336618423461914 0 0.42752519249916077 1.174615740776062 0
          0.5130302309989929 1.409538984298706 0 0.7182422876358032 1.973354458808899 0
          1.1970704793930054 3.288924217224121 0 0.1736481785774231 0.9848077297210693 0
          0.19101299345493317 1.083288550376892 0 0.21706022322177887 1.2310097217559814 0
          0.26047226786613464 1.477211594581604 0 0.36466118693351746 2.068096399307251 0
          0.6077685952186584 3.4468271732330322 0 6.123234262925839e-17 1 0
          6.735557689218423e-17 1.100000023841858 0 7.654042497785054e-17 1.25 0
          9.184850732644269e-17 1.5 0 1.2858791290399772e-16 2.0999999046325684 0
          2.1431319258495947e-16 3.5 0 3.0616169991140216e-16 5 0
          5 0.8816350102424622 0 5 1.819849967956543 0
          5 3.501039981842041 0 0.8816350102424622 5 0
          1.819849967956543 5 0 3.501039981842041 5 0
          5 5 0 5 2.5 0
          2.5 5 0
          <InformationKey name="L2_NORM_RANGE" location="vtkDataArray" length="2">
            <Value index="0">
              0.99999997722
            </Value>
            <Value index="1">
              7.0710678119
            </Value>
          </InformationKey>
        </DataArray>
      </Points>
      <Cells>
        <DataArray type="Int64" Name="connectivity" format="ascii" RangeMin="0" RangeMax="56">
          0 1 8 7 1 2
          9 8 2 3 10 9
          3 4 11 10 4 5
          12 11 5 6 50 12
          7 8 14 13 8 9
          15 14 9 10 16 15
          10 11 17 16 11 12
          18 17 12 50 51 18
          13 14 20 19 14 15
          21 20 15 16 22 21
          16 17 23 22 17 18
          24 23 18 51 52 24
          19 20 26 25 20 21
          27 26 21 22 28 27
          22 23 29 28 23 24
          30 29 24 52 55 30
          25 26 32 31 26 27
          33 32 27 28 34 33
          28 29 35 34 29 30
          36 35 30 55 54 36
          31 32 38 37 32 33
          39 38 33 34 40 39
          34 35 41 40 35 36
          42 41 36 54 53 42
          37 38 44 43 38 39
          45 44 39 40 46 45
          40 41 47 46 41 42
          48 47 42 53 49 48
          52 56 55
        </DataArray>
        <DataArray type="Int64" Name="offsets" format="ascii" RangeMin="4" RangeMax="171">
          4 8 12 16 20 24
          28 32 36 40 44 48
          52 56 60 64 68 72
          76 80 84 88 92 96
          100 104 108 112 116 120
          124 128 132 136 140 144
          148 152 156 160 164 168
          171
        </DataArray>
        <DataArray type="UInt8" Name="types" format="ascii" RangeMin="6" RangeMax="9">
          9 9 9 9 9 9
          9 9 9 9 9 9
          9 9 9 9 9 9
          9 9 9 9 9 9
          9 9 9 9 9 9
          9 9 9 9 9 9
          9 9 9 9 9 9
          6
        </DataArray>
      </Cells>
    </Piece>
  </UnstructuredGrid>
</VTKFile>
